# Force       
# CofR        : (0.000000e+00 0.000000e+00 0.000000e+00)
#
# Time        	total_x total_y total_z	pressure_x pressure_y pressure_z	viscous_x viscous_y viscous_z	porous_x porous_y porous_z
2              3.113515e+01 2.450861e-04 -1.129166e-04 0.000000e+00 0.000000e+00 0.000000e+00 0.000000e+00 0.000000e+00 0.000000e+00 3.113515e+01 2.450861e-04 -1.129166e-04
