# Force       
# CofR        : (0.000000e+00 0.000000e+00 0.000000e+00)
#
# Time        	total_x total_y total_z	pressure_x pressure_y pressure_z	viscous_x viscous_y viscous_z	porous_x porous_y porous_z
1              3.199829e+01 1.833517e-05 -1.135071e-04 0.000000e+00 0.000000e+00 0.000000e+00 0.000000e+00 0.000000e+00 0.000000e+00 3.199829e+01 1.833517e-05 -1.135071e-04
