# Moment      
# CofR        : (0.000000e+00 0.000000e+00 0.000000e+00)
#
# Time        	total_x total_y total_z	pressure_x pressure_y pressure_z	viscous_x viscous_y viscous_z	porous_x porous_y porous_z
1              -1.738899e-04 1.602086e+01 -4.687812e+01 0.000000e+00 0.000000e+00 0.000000e+00 0.000000e+00 0.000000e+00 0.000000e+00 -1.738899e-04 1.602086e+01 -4.687812e+01
